   * xtb version 6.6.1 (8d0f1dd) compiled by 'conda@1efc2f54142f' on 2023-08-01
          program call               : xtb npomy.xyz --gfn 2 --chrg 0 --uhf 0 --opt --cma

   ID    Z sym.   atoms
    1    6 C      1-8, 12-15, 17-20, 25-27, 29-34, 40-45, 49-52, 54-57,
                  62-64, 66-71
    2    1 H      9-11, 16, 21-24, 28, 35-39, 46-48, 53, 58-61, 65, 72-76

          :  Hamiltonian                  GFN2-xTB          :
 * total energy  :  -116.9036223 Eh     change       -0.7577242E-08 Eh
 * total energy  :  -116.9747842 Eh     change       -0.7116189E-01 Eh
 * total energy  :  -116.9900191 Eh     change       -0.1523488E-01 Eh
 * total energy  :  -116.9989900 Eh     change       -0.8970930E-02 Eh
 * total energy  :  -117.0044512 Eh     change       -0.5461188E-02 Eh
 * total energy  :  -117.0076811 Eh     change       -0.3229873E-02 Eh
 * total energy  :  -117.0090125 Eh     change       -0.1331453E-02 Eh
 * total energy  :  -117.0093340 Eh     change       -0.3214582E-03 Eh
 * total energy  :  -117.0094496 Eh     change       -0.1156259E-03 Eh
 * total energy  :  -117.0095634 Eh     change       -0.1137695E-03 Eh
 * total energy  :  -117.0096612 Eh     change       -0.9783777E-04 Eh
 * total energy  :  -117.0097294 Eh     change       -0.6822888E-04 Eh
 * total energy  :  -117.0097694 Eh     change       -0.3999540E-04 Eh
 * total energy  :  -117.0097791 Eh     change       -0.9640732E-05 Eh
 * total energy  :  -117.0097845 Eh     change       -0.5447763E-05 Eh
 * total energy  :  -117.0097901 Eh     change       -0.5616337E-05 Eh
 * total energy  :  -117.0097959 Eh     change       -0.5745854E-05 Eh
 * total energy  :  -117.0097998 Eh     change       -0.3862006E-05 Eh
   *** GEOMETRY OPTIMIZATION CONVERGED AFTER 18 ITERATIONS ***

 final structure:
================
76
 xtb: 6.6.1 (8d0f1dd)
C            0.57089040947567        0.19493226668768       -0.04258078370880
C           -0.57082445556313       -0.19525935951777       -0.04322867379591
C           -6.30018115407375       -3.11966440469257       -0.11551237781489
C           -5.30729437230111       -4.07659198343727       -0.15479472837578
C           -3.97668431430513       -3.70882111110920       -0.13935101539156
C           -3.59721693909953       -2.35235162674392       -0.07302455389733
C           -4.60833361790528       -1.35110613738651       -0.06270520667839
C           -5.97826693269857       -1.74893738097019       -0.07828762335200
H           -7.34085901367309       -3.40877784721724       -0.12468302745413
H           -5.57116603294155       -5.12343676548991       -0.20196407257515
H           -3.20775237111576       -4.46448464705014       -0.19038642477639
C           -4.26649579526173        0.02410013697734       -0.04240873473581
C           -6.97370244012197       -0.76934197713856       -0.06360413921304
C           -6.66839235323675        0.59597733172251       -0.03425645585168
C           -5.31009577661026        1.02165953041469       -0.02180458142375
H           -8.01055480946601       -1.07459465149754       -0.07671869469697
C           -5.05142859788562        2.39790373309947        0.01043093869094
C           -6.07205364274910        3.31931002733621        0.02614509312951
C           -7.40600784675468        2.90100469560371        0.01041796030481
C           -7.69690795810386        1.56545100121915       -0.01834761504076
H           -4.03432233741720        2.75745114977316        0.02737797250277
H           -5.84355041954637        4.37468864390300        0.05173205141232
H           -8.19854151711182        3.63487387917381        0.02244468957532
H           -8.72268449239955        1.22539472509524       -0.02908250722052
C           -2.91418757898311        0.36504228576747       -0.04947964430117
C           -1.91822924269016       -0.60940598482924       -0.05966677674951
C           -2.23589251605165       -1.96938670747634       -0.05452759235468
H           -2.59490545534630        1.39514106024025       -0.03821362403966
C           -1.02234283370504       -3.83768016384969        1.05998006727643
C            0.05827115283657       -4.69649898363591        1.14191725946148
C            1.03931586348819       -4.67852713338376        0.16447755770532
C            0.93122092926631       -3.79957963104536       -0.90058885519950
C           -0.14518941017710       -2.93616475345641       -0.98281899347045
C           -1.13438630498146       -2.94381985775250       -0.00211626853415
H           -1.77609213794441       -3.83852776151724        1.83471039633721
H            0.13874124978288       -5.37902331217130        1.97559394058727
H            1.88499128147058       -5.34734611819505        0.23326562984198
H            1.68995810103054       -3.78484559525408       -1.67041165017472
H           -0.22908254624969       -2.25445558940421       -1.81639738833326
C            6.30005679007238        3.11972474352005       -0.11554630396375
C            5.30711922017796        4.07659986204157       -0.15476361206937
C            3.97653134265808        3.70876687344708       -0.13908327701350
C            3.59713869113146        2.35229124109383       -0.07254000138444
C            4.60830317142575        1.35110194714750       -0.06221998807457
C            5.97821319586699        1.74898896081186       -0.07815069751430
H            7.34071918770751        3.40888779707780       -0.12494474332179
H            5.57093353110809        5.12345108278528       -0.20211840884597
H            3.20755291948188        4.46438511188814       -0.19010947158863
C            4.26653096914218       -0.02411545307017       -0.04169114216203
C            6.97369118099410        0.76943372409336       -0.06380347245520
C            6.66845005655117       -0.59589845228284       -0.03438705758695
C            5.31017620614369       -1.02162965685044       -0.02125557933416
H            8.01052675187696        1.07472804594610       -0.07730251026395
C            5.05157158587931       -2.39787520682047        0.01132032558640
C            6.07223661119143       -3.31924658653486        0.02644111695266
C            7.40616578757945       -2.90090112514468        0.00977180700856
C            7.69700695472972       -1.56533767674451       -0.01912150441113
H            4.03448709000868       -2.75744928225962        0.02900424703474
H            5.84378407196087       -4.37463056091552        0.05226018008975
H            8.19872884009965       -3.63474835349526        0.02119958419441
H            8.72276717466052       -1.22525314135320       -0.03050453122889
C            2.91423941543347       -0.36510212156621       -0.04859740071414
C            1.91822452683369        0.60930220140755       -0.05892234555367
C            2.23582930951180        1.96928121771597       -0.05394256134242
H            2.59499402758879       -1.39521322722840       -0.03720572257553
C            1.02207059893319        3.83759810206400        1.06029053729816
C           -0.05852170720409        4.69647074537857        1.14196022822200
C           -1.03931775680988        4.67855848091182        0.16426797057913
C           -0.93101370911640        3.79959136259472       -0.90075884038141
C            0.14534412772780        2.93608074434898       -0.98268930394158
C            1.13430596905296        2.94370807863819       -0.00175470967839
H            1.77564952329051        3.83842732808663        1.83518766020214
H           -0.13916098502155        5.37900776649907        1.97560798435971
H           -1.88495662889768        5.34744753361872        0.23282308296324
H           -1.68954512059218        3.78492016678508       -1.67078681422338
H            0.22940618659507        2.25434876446513       -1.81623270956053

          :  Hamiltonian                  GFN2-xTB          :
         :: total energy            -117.009799755341 Eh    ::
         :: gradient norm              0.000383910030 Eh/a0 ::
         :: HOMO-LUMO gap              0.000453145251 eV    ::
         :: SCC energy              -119.377886775150 Eh    ::
         :: -> dispersion             -0.113664818610 Eh    ::
         :: repulsion energy           2.368352114317 Eh    ::

    * Orbital Energies and Occupations

         #    Occupation            Energy/Eh            Energy/eV
      -------------------------------------------------------------
         1        2.0000           -0.6542272             -17.8024
       ...           ...                  ...                  ...
        98        2.0000           -0.4069381             -11.0733
        99        2.0000           -0.4060085             -11.0481
       100        2.0000           -0.4058706             -11.0443
       101        2.0000           -0.4040728             -10.9954
       102        2.0000           -0.3998052             -10.8793
       103        2.0000           -0.3996919             -10.8762
       104        2.0000           -0.3985224             -10.8443
       105        2.0000           -0.3975096             -10.8168
       106        2.0000           -0.3921114             -10.6699
       107        2.0000           -0.3883687             -10.5681
       108        2.0000           -0.3814364             -10.3794
       109        2.0000           -0.3671738              -9.9913
       110        1.0044           -0.3217843              -8.7562 (HOMO)
       111        0.9956           -0.3217677              -8.7557 (LUMO)
       112                         -0.2650383              -7.2121
       113                         -0.2528901              -6.8815
       114                         -0.2433835              -6.6228
       115                         -0.2274756              -6.1899
       116                         -0.2274520              -6.1893
       117                         -0.2236528              -6.0859
       118                         -0.2232185              -6.0741
       119                         -0.2229596              -6.0670
       120                         -0.2222337              -6.0473
       121                         -0.2179351              -5.9303
       ...                                ...                  ...
       220                          1.4433017              39.2742
      -------------------------------------------------------------
                  HL-Gap            0.0000167 Eh            0.0005 eV

     #   Z          covCN         q      C6AA      α(0)
     1   6 C        1.987    -0.043    32.192     9.163
     2   6 C        1.987    -0.043    32.192     9.163
     3   6 C        2.921    -0.038    28.944     8.822
     4   6 C        2.909    -0.029    28.728     8.789
     5   6 C        2.920    -0.037    28.929     8.820
     6   6 C        2.980     0.008    27.827     8.653
     7   6 C        2.996     0.001    27.992     8.679
     8   6 C        2.975     0.013    27.730     8.638
     9   1 H        0.926     0.030     2.590     2.517
    10   1 H        0.926     0.028     2.611     2.527
    11   1 H        0.926     0.033     2.549     2.497
    12   6 C        2.973     0.005    27.908     8.665
    13   6 C        2.923    -0.046    29.133     8.851
    14   6 C        2.980     0.013    27.720     8.636
    15   6 C        2.980     0.005    27.903     8.665
    16   1 H        0.926     0.030     2.583     2.513
    17   6 C        2.918    -0.034    28.845     8.807
    18   6 C        2.917    -0.031    28.775     8.796
    19   6 C        2.914    -0.030    28.746     8.792
    20   6 C        2.922    -0.036    28.897     8.815
    21   1 H        0.926     0.033     2.549     2.497
    22   1 H        0.926     0.028     2.610     2.526
    23   1 H        0.926     0.029     2.601     2.522
    24   1 H        0.926     0.030     2.586     2.515
    25   6 C        2.931    -0.039    28.965     8.826
    26   6 C        2.971     0.031    27.314     8.573
    27   6 C        2.985    -0.000    28.027     8.684
    28   1 H        0.926     0.035     2.513     2.479
    29   6 C        2.924    -0.032    28.794     8.800
    30   6 C        2.919    -0.030    28.751     8.793
    31   6 C        2.920    -0.031    28.782     8.798
    32   6 C        2.918    -0.030    28.738     8.791
    33   6 C        2.925    -0.030    28.761     8.795
    34   6 C        2.977     0.016    27.651     8.626
    35   1 H        0.926     0.031     2.578     2.511
    36   1 H        0.926     0.030     2.593     2.518
    37   1 H        0.926     0.028     2.611     2.527
    38   1 H        0.926     0.029     2.603     2.523
    39   1 H        0.926     0.031     2.569     2.506
    40   6 C        2.921    -0.038    28.944     8.822
    41   6 C        2.909    -0.029    28.728     8.789
    42   6 C        2.920    -0.037    28.929     8.820
    43   6 C        2.980     0.008    27.827     8.653
    44   6 C        2.996     0.001    27.992     8.679
    45   6 C        2.975     0.013    27.730     8.638
    46   1 H        0.926     0.030     2.590     2.517
    47   1 H        0.926     0.028     2.611     2.527
    48   1 H        0.926     0.033     2.549     2.497
    49   6 C        2.973     0.005    27.908     8.665
    50   6 C        2.923    -0.046    29.133     8.851
    51   6 C        2.980     0.013    27.720     8.636
    52   6 C        2.980     0.005    27.903     8.665
    53   1 H        0.926     0.030     2.583     2.513
    54   6 C        2.918    -0.034    28.845     8.807
    55   6 C        2.917    -0.031    28.775     8.796
    56   6 C        2.914    -0.030    28.746     8.792
    57   6 C        2.922    -0.036    28.897     8.815
    58   1 H        0.926     0.033     2.549     2.497
    59   1 H        0.926     0.028     2.610     2.526
    60   1 H        0.926     0.029     2.601     2.522
    61   1 H        0.926     0.030     2.586     2.515
    62   6 C        2.931    -0.039    28.965     8.826
    63   6 C        2.971     0.031    27.314     8.573
    64   6 C        2.985    -0.000    28.027     8.684
    65   1 H        0.926     0.035     2.513     2.479
    66   6 C        2.924    -0.032    28.794     8.800
    67   6 C        2.919    -0.030    28.751     8.793
    68   6 C        2.920    -0.031    28.782     8.798
    69   6 C        2.918    -0.030    28.738     8.791
    70   6 C        2.925    -0.030    28.761     8.795
    71   6 C        2.977     0.016    27.651     8.626
    72   1 H        0.926     0.031     2.578     2.511
    73   1 H        0.926     0.030     2.593     2.518
    74   1 H        0.926     0.028     2.611     2.527
    75   1 H        0.926     0.029     2.603     2.523
    76   1 H        0.926     0.031     2.569     2.506

Wiberg/Mayer (AO) data.
largest (>0.10) Wiberg bond orders for each atom

     #   Z sym  total        # sym  WBO       # sym  WBO       # sym  WBO
 ---------------------------------------------------------------------------
     1   6 C    3.952 --     2 C    2.656    63 C    1.125
     2   6 C    3.952 --     1 C    2.656    26 C    1.125
     3   6 C    3.817 --     4 C    1.450     8 C    1.283     9 H    0.969
     4   6 C    3.987 --     3 C    1.450     5 C    1.445    10 H    0.970
     5   6 C    3.815 --     4 C    1.445     6 C    1.286    11 H    0.966
     6   6 C    3.988 --     5 C    1.286    27 C    1.262     7 C    1.248
     7   6 C    3.961 --    12 C    1.274     6 C    1.248     8 C    1.211
     8   6 C    3.990 --    13 C    1.332     3 C    1.283     7 C    1.211
     9   1 H    0.998 --     3 C    0.969
    10   1 H    0.998 --     4 C    0.970
    11   1 H    0.998 --     5 C    0.966
    12   6 C    3.987 --    25 C    1.363     7 C    1.274    15 C    1.154
    13   6 C    3.758 --     8 C    1.332    14 C    1.320    16 H    0.967
    14   6 C    3.990 --    13 C    1.320    20 C    1.266    15 C    1.237
    15   6 C    3.914 --    17 C    1.350    14 C    1.237    12 C    1.154
    16   1 H    0.998 --    13 C    0.967
    17   6 C    3.989 --    18 C    1.496    15 C    1.350    21 H    0.962
                            20 C    0.104
    18   6 C    3.921 --    17 C    1.496    19 C    1.342    22 H    0.972
    19   6 C    3.986 --    20 C    1.542    18 C    1.342    23 H    0.971
    20   6 C    3.933 --    19 C    1.542    14 C    1.266    24 H    0.969
                            17 C    0.104
    21   1 H    0.998 --    17 C    0.962
    22   1 H    0.999 --    18 C    0.972
    23   1 H    0.998 --    19 C    0.971
    24   1 H    0.999 --    20 C    0.969
    25   6 C    3.871 --    12 C    1.363    26 C    1.346    28 H    0.961
    26   6 C    3.986 --    25 C    1.346    27 C    1.338     2 C    1.125
    27   6 C    3.864 --    26 C    1.338     6 C    1.262    34 C    1.041
    28   1 H    0.998 --    25 C    0.961
    29   6 C    3.981 --    30 C    1.448    34 C    1.388    35 H    0.970
                            32 C    0.108
    30   6 C    3.991 --    29 C    1.448    31 C    1.435    36 H    0.971
                            33 C    0.109
    31   6 C    3.984 --    30 C    1.435    32 C    1.434    37 H    0.972
                            34 C    0.106
    32   6 C    3.991 --    33 C    1.450    31 C    1.434    38 H    0.970
                            29 C    0.108
    33   6 C    3.981 --    32 C    1.450    34 C    1.387    39 H    0.970
                            30 C    0.109
    34   6 C    3.987 --    29 C    1.388    33 C    1.387    27 C    1.041
                            31 C    0.106
    35   1 H    0.999 --    29 C    0.970
    36   1 H    0.998 --    30 C    0.971
    37   1 H    0.999 --    31 C    0.972
    38   1 H    0.998 --    32 C    0.970
    39   1 H    0.999 --    33 C    0.970
    40   6 C    3.817 --    41 C    1.450    45 C    1.283    46 H    0.969
    41   6 C    3.987 --    40 C    1.450    42 C    1.445    47 H    0.970
    42   6 C    3.815 --    41 C    1.445    43 C    1.286    48 H    0.966
    43   6 C    3.988 --    42 C    1.286    64 C    1.262    44 C    1.248
    44   6 C    3.961 --    49 C    1.274    43 C    1.248    45 C    1.211
    45   6 C    3.990 --    50 C    1.332    40 C    1.283    44 C    1.211
    46   1 H    0.998 --    40 C    0.969
    47   1 H    0.998 --    41 C    0.970
    48   1 H    0.998 --    42 C    0.966
    49   6 C    3.987 --    62 C    1.363    44 C    1.274    52 C    1.154
    50   6 C    3.758 --    45 C    1.332    51 C    1.320    53 H    0.967
    51   6 C    3.990 --    50 C    1.320    57 C    1.266    52 C    1.237
    52   6 C    3.914 --    54 C    1.350    51 C    1.237    49 C    1.154
    53   1 H    0.998 --    50 C    0.967
    54   6 C    3.989 --    55 C    1.496    52 C    1.350    58 H    0.962
                            57 C    0.104
    55   6 C    3.921 --    54 C    1.496    56 C    1.342    59 H    0.972
    56   6 C    3.986 --    57 C    1.542    55 C    1.342    60 H    0.971
    57   6 C    3.933 --    56 C    1.542    51 C    1.266    61 H    0.969
                            54 C    0.104
    58   1 H    0.998 --    54 C    0.962
    59   1 H    0.999 --    55 C    0.972
    60   1 H    0.998 --    56 C    0.971
    61   1 H    0.999 --    57 C    0.969
    62   6 C    3.871 --    49 C    1.363    63 C    1.346    65 H    0.961
    63   6 C    3.986 --    62 C    1.346    64 C    1.338     1 C    1.125
    64   6 C    3.864 --    63 C    1.338    43 C    1.262    71 C    1.041
    65   1 H    0.998 --    62 C    0.961
    66   6 C    3.981 --    67 C    1.448    71 C    1.388    72 H    0.970
                            69 C    0.108
    67   6 C    3.991 --    66 C    1.448    68 C    1.435    73 H    0.971
                            70 C    0.109
    68   6 C    3.984 --    67 C    1.435    69 C    1.434    74 H    0.972
                            71 C    0.106
    69   6 C    3.991 --    70 C    1.450    68 C    1.434    75 H    0.970
                            66 C    0.108
    70   6 C    3.981 --    69 C    1.450    71 C    1.387    76 H    0.970
                            67 C    0.109
    71   6 C    3.987 --    66 C    1.388    70 C    1.387    64 C    1.041
                            68 C    0.106
    72   1 H    0.999 --    66 C    0.970
    73   1 H    0.998 --    67 C    0.971
    74   1 H    0.999 --    68 C    0.972
    75   1 H    0.998 --    69 C    0.970
    76   1 H    0.999 --    70 C    0.970
 ---------------------------------------------------------------------------

molecular dipole:
                 x           y           z       tot (Debye)
 q only:       -0.000       0.000      -0.007
   full:       -0.000       0.000       0.016       0.040

           -------------------------------------------------
          | TOTAL ENERGY             -117.009799755341 Eh   |
          | GRADIENT NORM               0.000383910030 Eh/α |
          | HOMO-LUMO GAP               0.000453145251 eV   |
           -------------------------------------------------

 * finished run on 2024/10/21 at 14:22:53.837
